<?xml version="1.0" encoding="UTF-8"?>

<!-- generated on 2026-04-09T15:35:43.709618+10:00 by Eclipse SUMO GUI 1.26.0
<sumoConfiguration xmlns:xsi="http://www.w3.org/2001/XMLSchema-instance" xsi:noNamespaceSchemaLocation="http://sumo.dlr.de/xsd/sumoConfiguration.xsd">

    <input>
        <net-file value="C:\aaUniFiles\FYP\Monash_Campus\2026-03-11-17-20-46\osm.net.xml.gz"/>
        <route-files value="C:\aaUniFiles\FYP\Monash_Campus\2026-03-11-17-20-46\osm_pt.rou.xml,C:\aaUniFiles\FYP\Monash_Campus\2026-03-11-17-20-46\osm.bicycle.trips.xml,C:\aaUniFiles\FYP\Monash_Campus\2026-03-11-17-20-46\osm.bus.trips.xml,C:\aaUniFiles\FYP\Monash_Campus\2026-03-11-17-20-46\osm.passenger.trips.xml,C:\aaUniFiles\FYP\Monash_Campus\2026-03-11-17-20-46\osm.pedestrian.rou.xml"/>
        <additional-files value="C:\aaUniFiles\FYP\Monash_Campus\2026-03-11-17-20-46\osm.poly.xml.gz,C:\aaUniFiles\FYP\Monash_Campus\2026-03-11-17-20-46\osm_stops.add.xml,C:\aaUniFiles\FYP\Monash_Campus\2026-03-11-17-20-46\output.add.xml"/>
    </input>

    <output>
        <tripinfo-output value="C:\aaUniFiles\FYP\Monash_Campus\2026-03-11-17-20-46\tripinfos.xml"/>
        <stop-output value="C:\aaUniFiles\FYP\Monash_Campus\2026-03-11-17-20-46\stopinfos.xml"/>
        <statistic-output value="C:\aaUniFiles\FYP\Monash_Campus\2026-03-11-17-20-46\stats.xml"/>
    </output>

    <time>
        <end value="1000000"/>
        <step-length value="1.0"/>
    </time>

    <processing>
        <ignore-route-errors value="true"/>
        <tls.actuated.jam-threshold value="30"/>
    </processing>

    <routing>
        <device.rerouting.adaptation-steps value="18"/>
        <device.rerouting.adaptation-interval value="10"/>
    </routing>

    <report>
        <verbose value="true"/>
        <duration-log.statistics value="true"/>
        <no-step-log value="true"/>
    </report>

    <traci_server>
        <remote-port value="62904"/>
    </traci_server>

    <gui_only>
        <gui-settings-file value="C:\aaUniFiles\FYP\Monash_Campus\2026-03-11-17-20-46\osm.view.xml"/>
        <start value="true"/>
    </gui_only>

</sumoConfiguration>
-->

<meandata xmlns:xsi="http://www.w3.org/2001/XMLSchema-instance" xsi:noNamespaceSchemaLocation="http://sumo.dlr.de/xsd/meandata_file.xsd">
    <interval begin="0.00" end="273.00" id="wizard_example">
        <edge id="-1000775906#0" sampledSeconds="0.00" departed="0" arrived="0" entered="0" left="0" laneChangedFrom="0" laneChangedTo="0"/>
        <edge id="-1000775906#1" sampledSeconds="0.00" departed="0" arrived="0" entered="0" left="0" laneChangedFrom="0" laneChangedTo="0"/>
        <edge id="-1001027005" sampledSeconds="0.00" departed="0" arrived="0" entered="0" left="0" laneChangedFrom="0" laneChangedTo="0"/>
        <edge id="-1003898198#0" sampledSeconds="0.00" departed="0" arrived="0" entered="0" left="0" laneChangedFrom="0" laneChangedTo="0"/>
        <edge id="-1003898198#1" sampledSeconds="0.00" departed="0" arrived="0" entered="0" left="0" laneChangedFrom="0" laneChangedTo="0"/>
        <edge id="-1004615761#0" sampledSeconds="0.00" departed="0" arrived="0" entered="0" left="0" laneChangedFrom="0" laneChangedTo="0"/>
        <edge id="-1004615761#1" sampledSeconds="0.00" departed="0" arrived="0" entered="0" left="0" laneChangedFrom="0" laneChangedTo="0"/>
        <edge id="-1004615768" sampledSeconds="0.00" departed="0" arrived="0" entered="0" left="0" laneChangedFrom="0" laneChangedTo="0"/>
        <edge id="-1004615769#0" sampledSeconds="0.00" departed="0" arrived="0" entered="0" left="0" laneChangedFrom="0" laneChangedTo="0"/>
        <edge id="-1004615769#1" sampledSeconds="0.00" departed="0" arrived="0" entered="0" left="0" laneChangedFrom="0" laneChangedTo="0"/>
        <edge id="-1004615769#2" sampledSeconds="0.00" departed="0" arrived="0" entered="0" left="0" laneChangedFrom="0" laneChangedTo="0"/>
        <edge id="-1004615769#3" sampledSeconds="0.00" departed="0" arrived="0" entered="0" left="0" laneChangedFrom="0" laneChangedTo="0"/>
        <edge id="-1004615769#4" sampledSeconds="0.00" departed="0" arrived="0" entered="0" left="0" laneChangedFrom="0" laneChangedTo="0"/>
        <edge id="-1004615770" sampledSeconds="0.00" departed="0" arrived="0" entered="0" left="0" laneChangedFrom="0" laneChangedTo="0"/>
        <edge id="-1007907996" sampledSeconds="0.00" departed="0" arrived="0" entered="0" left="0" laneChangedFrom="0" laneChangedTo="0"/>
        <edge id="-1007907997#0" sampledSeconds="0.00" departed="0" arrived="0" entered="0" left="0" laneChangedFrom="0" laneChangedTo="0"/>
        <edge id="-1007907997#1" sampledSeconds="0.00" departed="0" arrived="0" entered="0" left="0" laneChangedFrom="0" laneChangedTo="0"/>
        <edge id="-1007907997#2" sampledSeconds="0.00" departed="0" arrived="0" entered="0" left="0" laneChangedFrom="0" laneChangedTo="0"/>
        <edge id="-1007907997#4" sampledSeconds="0.00" departed="0" arrived="0" entered="0" left="0" laneChangedFrom="0" laneChangedTo="0"/>
        <edge id="-1007907997#6" sampledSeconds="0.00" departed="0" arrived="0" entered="0" left="0" laneChangedFrom="0" laneChangedTo="0"/>
        <edge id="-1011594504#0" sampledSeconds="0.00" departed="0" arrived="0" entered="0" left="0" laneChangedFrom="0" laneChangedTo="0"/>
        <edge id="-1011594504#1" sampledSeconds="0.00" departed="0" arrived="0" entered="0" left="0" laneChangedFrom="0" laneChangedTo="0"/>
        <edge id="-1011594504#2" sampledSeconds="0.00" departed="0" arrived="0" entered="0" left="0" laneChangedFrom="0" laneChangedTo="0"/>
        <edge id="-1011594504#3" sampledSeconds="10.60" traveltime="10.32" overlapTraveltime="10.60" density="0.66" overlapDensity="0.68" laneDensity="0.66" occupancy="0.11" waitingTime="0.00" timeLoss="0.67" speed="5.52" speedRelative="0.99" departed="0" arrived="1" entered="1" left="0" laneChangedFrom="0" laneChangedTo="0" flow="13.19"/>
        <edge id="-1013649078#1" sampledSeconds="0.00" departed="0" arrived="0" entered="0" left="0" laneChangedFrom="0" laneChangedTo="0"/>
        <edge id="-1037064064#0" sampledSeconds="0.00" departed="0" arrived="0" entered="0" left="0" laneChangedFrom="0" laneChangedTo="0"/>
        <edge id="-1037064064#1" sampledSeconds="0.00" departed="0" arrived="0" entered="0" left="0" laneChangedFrom="0" laneChangedTo="0"/>
        <edge id="-1037064064#2" sampledSeconds="0.00" departed="0" arrived="0" entered="0" left="0" laneChangedFrom="0" laneChangedTo="0"/>
        <edge id="-1037064066#0" sampledSeconds="4.04" traveltime="3.44" overlapTraveltime="4.04" density="1.34" overlapDensity="1.58" laneDensity="1.34" occupancy="0.22" waitingTime="0.00" timeLoss="0.62" speed="2.72" speedRelative="0.98" departed="0" arrived="0" entered="1" left="1" laneChangedFrom="0" laneChangedTo="0" flow="13.19"/>
        <edge id="-1037064066#1" sampledSeconds="35.28" traveltime="17.69" overlapTraveltime="18.31" density="2.96" overlapDensity="3.01" laneDensity="2.96" occupancy="0.47" waitingTime="0.00" timeLoss="4.69" speed="2.43" speedRelative="0.87" departed="1" arrived="1" entered="1" left="1" laneChangedFrom="0" laneChangedTo="0" flow="25.85"/>
        <edge id="-1037064066#2" sampledSeconds="0.00" departed="0" arrived="0" entered="0" left="0" laneChangedFrom="0" laneChangedTo="0"/>
        <edge id="-10539447#0" sampledSeconds="95.78" traveltime="12.89" overlapTraveltime="13.68" density="3.61" overlapDensity="3.83" laneDensity="3.61" occupancy="2.09" waitingTime="0.00" timeLoss="27.98" speed="7.13" speedRelative="0.51" departed="0" arrived="0" entered="7" left="7" laneChangedFrom="0" laneChangedTo="0" flow="92.31"/>
        <edge id="-10539447#1" sampledSeconds="16.95" traveltime="1.48" overlapTraveltime="2.70" density="4.33" overlapDensity="7.10" laneDensity="4.33" occupancy="2.59" waitingTime="0.00" timeLoss="7.47" speed="6.10" speedRelative="0.44" departed="0" arrived="0" entered="7" left="7" laneChangedFrom="0" laneChangedTo="0" flow="92.31"/>
        <edge id="-10585181#0" sampledSeconds="3.34" traveltime="0.02" overlapTraveltime="1.22" density="1.24" overlapDensity="61.09" laneDensity="1.24" occupancy="1.20" waitingTime="0.00" timeLoss="0.14" speed="8.87" speedRelative="0.64" departed="0" arrived="0" entered="3" left="3" laneChangedFrom="0" laneChangedTo="0" flow="39.56"/>
        <edge id="-10585181#1" sampledSeconds="7.28" traveltime="1.40" overlapTraveltime="2.47" density="0.88" overlapDensity="1.53" laneDensity="0.88" occupancy="0.93" waitingTime="0.00" timeLoss="0.45" speed="11.17" speedRelative="0.80" departed="0" arrived="0" entered="3" left="3" laneChangedFrom="0" laneChangedTo="0" flow="39.56"/>
        <edge id="-10585181#2" sampledSeconds="3.93" traveltime="0.52" overlapTraveltime="1.37" density="0.94" overlapDensity="2.39" laneDensity="0.94" occupancy="0.89" waitingTime="0.00" timeLoss="0.50" speed="11.97" speedRelative="0.86" departed="0" arrived="0" entered="3" left="3" laneChangedFrom="0" laneChangedTo="0" flow="39.56"/>
        <edge id="-10585181#3" sampledSeconds="4.30" traveltime="0.55" overlapTraveltime="1.51" density="1.04" overlapDensity="2.70" laneDensity="1.04" occupancy="0.99" waitingTime="0.00" timeLoss="0.91" speed="10.83" speedRelative="0.78" departed="0" arrived="0" entered="3" left="3" laneChangedFrom="0" laneChangedTo="0" flow="39.56"/>
        <edge id="-10585181#4" sampledSeconds="4.79" traveltime="0.60" overlapTraveltime="1.71" density="1.17" overlapDensity="3.08" laneDensity="1.17" occupancy="1.13" waitingTime="0.00" timeLoss="1.43" speed="9.62" speedRelative="0.69" departed="0" arrived="0" entered="3" left="3" laneChangedFrom="0" laneChangedTo="0" flow="39.56"/>
        <edge id="-10585181#5" sampledSeconds="5.90" traveltime="0.79" overlapTraveltime="2.13" density="1.49" overlapDensity="3.70" laneDensity="1.49" occupancy="1.37" waitingTime="0.00" timeLoss="2.51" speed="7.89" speedRelative="0.57" departed="0" arrived="0" entered="3" left="3" laneChangedFrom="0" laneChangedTo="0" flow="39.56"/>
        <edge id="-10585181#6" sampledSeconds="8.18" traveltime="0.71" overlapTraveltime="3.45" density="0.79" overlapDensity="4.53" laneDensity="0.79" occupancy="2.21" waitingTime="0.00" timeLoss="5.10" speed="5.16" speedRelative="0.37" departed="1" arrived="0" entered="2" left="3" laneChangedFrom="0" laneChangedTo="0" flow="26.37"/>
        <edge id="-10585181#7" sampledSeconds="4.25" traveltime="0.96" overlapTraveltime="2.40" density="1.07" overlapDensity="2.36" laneDensity="1.07" occupancy="0.93" waitingTime="0.00" timeLoss="2.03" speed="7.10" speedRelative="0.51" departed="0" arrived="0" entered="2" left="2" laneChangedFrom="0" laneChangedTo="0" flow="26.37"/>
        <edge id="-10585186" sampledSeconds="9.15" traveltime="3.45" overlapTraveltime="4.58" density="0.77" overlapDensity="1.02" laneDensity="0.77" occupancy="0.42" waitingTime="0.00" timeLoss="2.15" speed="8.28" speedRelative="0.60" departed="0" arrived="0" entered="2" left="2" laneChangedFrom="0" laneChangedTo="0" flow="26.37"/>
        <edge id="-10585197#1" sampledSeconds="0.00" departed="0" arrived="0" entered="0" left="0" laneChangedFrom="0" laneChangedTo="0"/>
        <edge id="-10585197#2" sampledSeconds="0.00" departed="0" arrived="0" entered="0" left="0" laneChangedFrom="0" laneChangedTo="0"/>
        <edge id="-1064871809#0" sampledSeconds="0.00" departed="0" arrived="0" entered="0" left="0" laneChangedFrom="0" laneChangedTo="0"/>
        <edge id="-1064871809#1" sampledSeconds="0.00" departed="0" arrived="0" entered="0" left="0" laneChangedFrom="0" laneChangedTo="0"/>
        <edge id="-1064871809#2" sampledSeconds="0.00" departed="0" arrived="0" entered="0" left="0" laneChangedFrom="0" laneChangedTo="0"/>
        <edge id="-1064871809#3" sampledSeconds="0.00" departed="0" arrived="0" entered="0" left="0" laneChangedFrom="0" laneChangedTo="0"/>
        <edge id="-1064871809#4" sampledSeconds="0.00" departed="0" arrived="0" entered="0" left="0" laneChangedFrom="0" laneChangedTo="0"/>
        <edge id="-1064871809#5" sampledSeconds="0.00" departed="0" arrived="0" entered="0" left="0" laneChangedFrom="0" laneChangedTo="0"/>
        <edge id="-1064871810#0" sampledSeconds="0.00" departed="0" arrived="0" entered="0" left="0" laneChangedFrom="0" laneChangedTo="0"/>
        <edge id="-1064871810#1" sampledSeconds="0.00" departed="0" arrived="0" entered="0" left="0" laneChangedFrom="0" laneChangedTo="0"/>
        <edge id="-1064871811#0" sampledSeconds="0.00" departed="0" arrived="0" entered="0" left="0" laneChangedFrom="0" laneChangedTo="0"/>
        <edge id="-1064871811#1" sampledSeconds="0.00" departed="0" arrived="0" entered="0" left="0" laneChangedFrom="0" laneChangedTo="0"/>
        <edge id="-10670468#0" sampledSeconds="6.19" traveltime="0.56" overlapTraveltime="4.25" density="0.51" overlapDensity="5.71" laneDensity="0.51" occupancy="1.87" waitingTime="0.00" timeLoss="2.90" speed="3.39" speedRelative="0.24" departed="1" arrived="0" entered="1" left="2" laneChangedFrom="0" laneChangedTo="0" flow="13.19"/>
        <edge id="-10670468#1" sampledSeconds="0.89" traveltime="0.42" overlapTraveltime="0.89" density="0.34" overlapDensity="0.73" laneDensity="0.34" occupancy="0.17" waitingTime="0.00" timeLoss="0.11" speed="10.58" speedRelative="0.76" departed="0" arrived="0" entered="1" left="1" laneChangedFrom="0" laneChangedTo="0" flow="13.19"/>
        <edge id="-10670468#2" sampledSeconds="0.46" traveltime="0.02" overlapTraveltime="0.46" density="0.32" overlapDensity="8.34" laneDensity="0.32" occupancy="0.16" waitingTime="0.00" timeLoss="0.03" speed="11.41" speedRelative="0.82" departed="0" arrived="0" entered="1" left="1" laneChangedFrom="0" laneChangedTo="0" flow="13.19"/>
        <edge id="-10670468#3" sampledSeconds="1.95" traveltime="1.52" overlapTraveltime="1.95" density="0.32" overlapDensity="0.41" laneDensity="0.32" occupancy="0.16" waitingTime="0.00" timeLoss="0.10" speed="11.53" speedRelative="0.83" departed="0" arrived="0" entered="1" left="1" laneChangedFrom="0" laneChangedTo="0" flow="13.19"/>
        <edge id="-10670468#4" sampledSeconds="2.33" traveltime="2.31" overlapTraveltime="2.76" density="0.25" overlapDensity="0.31" laneDensity="0.25" occupancy="0.14" waitingTime="0.00" timeLoss="0.04" speed="11.89" speedRelative="0.86" departed="1" arrived="0" entered="0" left="1" laneChangedFrom="0" laneChangedTo="0" flow="10.77"/>
        <edge id="-11040357#0" sampledSeconds="0.00" departed="0" arrived="0" entered="0" left="0" laneChangedFrom="0" laneChangedTo="0"/>
        <edge id="-11040357#1" sampledSeconds="0.00" departed="0" arrived="0" entered="0" left="0" laneChangedFrom="0" laneChangedTo="0"/>
        <edge id="-11040357#2" sampledSeconds="0.00" departed="0" arrived="0" entered="0" left="0" laneChangedFrom="0" laneChangedTo="0"/>
        <edge id="-11294993" sampledSeconds="0.00" departed="0" arrived="0" entered="0" left="0" laneChangedFrom="0" laneChangedTo="0"/>
        <edge id="-11294994" sampledSeconds="0.00" departed="0" arrived="0" entered="0" left="0" laneChangedFrom="0" laneChangedTo="0"/>
        <edge id="-1147258794#0" sampledSeconds="0.00" departed="0" arrived="0" entered="0" left="0" laneChangedFrom="0" laneChangedTo="0"/>
        <edge id="-1147258794#2" sampledSeconds="0.00" departed="0" arrived="0" entered="0" left="0" laneChangedFrom="0" laneChangedTo="0"/>
        <edge id="-114900092#1" sampledSeconds="0.00" departed="0" arrived="0" entered="0" left="0" laneChangedFrom="0" laneChangedTo="0"/>
        <edge id="-114900092#4" sampledSeconds="0.00" departed="0" arrived="0" entered="0" left="0" laneChangedFrom="0" laneChangedTo="0"/>
        <edge id="-114900092#6" sampledSeconds="0.00" departed="0" arrived="0" entered="0" left="0" laneChangedFrom="0" laneChangedTo="0"/>
        <edge id="-11527061#0" sampledSeconds="0.00" departed="0" arrived="0" entered="0" left="0" laneChangedFrom="0" laneChangedTo="0"/>
        <edge id="-11527061#2" sampledSeconds="0.00" departed="0" arrived="0" entered="0" left="0" laneChangedFrom="0" laneChangedTo="0"/>
        <edge id="-11527061#3" sampledSeconds="0.00" departed="0" arrived="0" entered="0" left="0" laneChangedFrom="0" laneChangedTo="0"/>
        <edge id="-11527061#5" sampledSeconds="0.00" departed="0" arrived="0" entered="0" left="0" laneChangedFrom="0" laneChangedTo="0"/>
        <edge id="-1162333280#0" sampledSeconds="0.00" departed="0" arrived="0" entered="0" left="0" laneChangedFrom="0" laneChangedTo="0"/>
        <edge id="-1162333280#1" sampledSeconds="0.00" departed="0" arrived="0" entered="0" left="0" laneChangedFrom="0" laneChangedTo="0"/>
        <edge id="-1164319799#0" sampledSeconds="0.00" departed="0" arrived="0" entered="0" left="0" laneChangedFrom="0" laneChangedTo="0"/>
        <edge id="-116895895#0" sampledSeconds="0.00" departed="0" arrived="0" entered="0" left="0" laneChangedFrom="0" laneChangedTo="0"/>
        <edge id="-116895895#1" sampledSeconds="0.00" departed="0" arrived="0" entered="0" left="0" laneChangedFrom="0" laneChangedTo="0"/>
        <edge id="-116895895#2" sampledSeconds="0.00" departed="0" arrived="0" entered="0" left="0" laneChangedFrom="0" laneChangedTo="0"/>
        <edge id="-116895895#3" sampledSeconds="0.00" departed="0" arrived="0" entered="0" left="0" laneChangedFrom="0" laneChangedTo="0"/>
        <edge id="-116895895#4" sampledSeconds="0.00" departed="0" arrived="0" entered="0" left="0" laneChangedFrom="0" laneChangedTo="0"/>
        <edge id="-116895895#5" sampledSeconds="0.00" departed="0" arrived="0" entered="0" left="0" laneChangedFrom="0" laneChangedTo="0"/>
        <edge id="-120422881" sampledSeconds="0.00" departed="0" arrived="0" entered="0" left="0" laneChangedFrom="0" laneChangedTo="0"/>
        <edge id="-120422882" sampledSeconds="0.00" departed="0" arrived="0" entered="0" left="0" laneChangedFrom="0" laneChangedTo="0"/>
        <edge id="-1209622245#0" sampledSeconds="0.00" departed="0" arrived="0" entered="0" left="0" laneChangedFrom="0" laneChangedTo="0"/>
        <edge id="-1209622245#1" sampledSeconds="0.00" departed="0" arrived="0" entered="0" left="0" laneChangedFrom="0" laneChangedTo="0"/>
        <edge id="-1209622645" sampledSeconds="0.00" departed="0" arrived="0" entered="0" left="0" laneChangedFrom="0" laneChangedTo="0"/>
        <edge id="-1209653401" sampledSeconds="58.27" traveltime="8.69" overlapTraveltime="9.80" density="4.34" overlapDensity="4.85" laneDensity="4.34" occupancy="2.38" waitingTime="0.00" timeLoss="5.71" speed="5.07" speedRelative="0.91" departed="0" arrived="1" entered="6" left="5" laneChangedFrom="0" laneChangedTo="0" flow="79.12"/>
        <edge id="-1209653402#0" sampledSeconds="20.17" traveltime="2.26" overlapTraveltime="3.45" density="4.32" overlapDensity="6.43" laneDensity="4.32" occupancy="2.37" waitingTime="0.00" timeLoss="1.97" speed="5.08" speedRelative="0.91" departed="0" arrived="0" entered="6" left="6" laneChangedFrom="0" laneChangedTo="0" flow="79.12"/>
        <edge id="-1209653403#0" sampledSeconds="0.00" departed="0" arrived="0" entered="0" left="0" laneChangedFrom="0" laneChangedTo="0"/>
        <edge id="-1209653403#1" sampledSeconds="0.00" departed="0" arrived="0" entered="0" left="0" laneChangedFrom="0" laneChangedTo="0"/>
        <edge id="-1209653405" sampledSeconds="0.00" departed="0" arrived="0" entered="0" left="0" laneChangedFrom="0" laneChangedTo="0"/>
        <edge id="-1209653409#0" sampledSeconds="5.98" traveltime="6.02" overlapTraveltime="6.54" density="1.11" overlapDensity="1.21" laneDensity="1.11" occupancy="0.19" waitingTime="0.00" timeLoss="2.14" speed="3.00" speedRelative="0.22" departed="1" arrived="0" entered="0" left="1" laneChangedFrom="0" laneChangedTo="0" flow="11.94"/>
        <edge id="-1209653409#1" sampledSeconds="15.64" traveltime="15.36" overlapTraveltime="15.64" density="0.67" overlapDensity="0.68" laneDensity="0.67" occupancy="0.11" waitingTime="0.00" timeLoss="0.85" speed="5.50" speedRelative="0.40" departed="0" arrived="0" entered="1" left="1" laneChangedFrom="0" laneChangedTo="0" flow="13.19"/>
        <edge id="-1209653410" sampledSeconds="0.00" departed="0" arrived="0" entered="0" left="0" laneChangedFrom="0" laneChangedTo="0"/>
        <edge id="-1209653411" sampledSeconds="1.74" traveltime="1.46" overlapTraveltime="1.74" density="0.68" overlapDensity="0.81" laneDensity="0.68" occupancy="0.11" waitingTime="0.00" timeLoss="0.11" speed="5.44" speedRelative="0.39" departed="0" arrived="0" entered="1" left="1" laneChangedFrom="0" laneChangedTo="0" flow="13.19"/>
        <edge id="-1209653413" sampledSeconds="0.00" departed="0" arrived="0" entered="0" left="0" laneChangedFrom="0" laneChangedTo="0"/>
        <edge id="-1209653414#0" sampledSeconds="0.00" departed="0" arrived="0" entered="0" left="0" laneChangedFrom="0" laneChangedTo="0"/>
        <edge id="-1209653414#1" sampledSeconds="0.00" departed="0" arrived="0" entered="0" left="0" laneChangedFrom="0" laneChangedTo="0"/>
        <edge id="-1209653417" sampledSeconds="0.00" departed="0" arrived="0" entered="0" left="0" laneChangedFrom="0" laneChangedTo="0"/>
        <edge id="-1255879638" sampledSeconds="0.00" departed="0" arrived="0" entered="0" left="0" laneChangedFrom="0" laneChangedTo="0"/>
        <edge id="-1272942442#0" sampledSeconds="0.00" departed="0" arrived="0" entered="0" left="0" laneChangedFrom="0" laneChangedTo="0"/>
        <edge id="-1272942442#3" sampledSeconds="0.00" departed="0" arrived="0" entered="0" left="0" laneChangedFrom="0" laneChangedTo="0"/>
        <edge id="-1272942442#4" sampledSeconds="0.00" departed="0" arrived="0" entered="0" left="0" laneChangedFrom="0" laneChangedTo="0"/>
        <edge id="-1272942443#0" sampledSeconds="0.00" departed="0" arrived="0" entered="0" left="0" laneChangedFrom="0" laneChangedTo="0"/>
        <edge id="-1272942443#1" sampledSeconds="0.00" departed="0" arrived="0" entered="0" left="0" laneChangedFrom="0" laneChangedTo="0"/>
        <edge id="-1272942443#10" sampledSeconds="0.00" departed="0" arrived="0" entered="0" left="0" laneChangedFrom="0" laneChangedTo="0"/>
        <edge id="-1272942443#2" sampledSeconds="0.00" departed="0" arrived="0" entered="0" left="0" laneChangedFrom="0" laneChangedTo="0"/>
        <edge id="-1272942443#3" sampledSeconds="0.00" departed="0" arrived="0" entered="0" left="0" laneChangedFrom="0" laneChangedTo="0"/>
        <edge id="-1272942443#5" sampledSeconds="0.00" departed="0" arrived="0" entered="0" left="0" laneChangedFrom="0" laneChangedTo="0"/>
        <edge id="-1272942443#6" sampledSeconds="0.00" departed="0" arrived="0" entered="0" left="0" laneChangedFrom="0" laneChangedTo="0"/>
        <edge id="-1272942443#7" sampledSeconds="0.00" departed="0" arrived="0" entered="0" left="0" laneChangedFrom="0" laneChangedTo="0"/>
        <edge id="-1272942443#8" sampledSeconds="0.00" departed="0" arrived="0" entered="0" left="0" laneChangedFrom="0" laneChangedTo="0"/>
        <edge id="-1272942443#9" sampledSeconds="0.00" departed="0" arrived="0" entered="0" left="0" laneChangedFrom="0" laneChangedTo="0"/>
        <edge id="-1282731726" sampledSeconds="0.00" departed="0" arrived="0" entered="0" left="0" laneChangedFrom="0" laneChangedTo="0"/>
        <edge id="-1315484698" sampledSeconds="0.00" departed="0" arrived="0" entered="0" left="0" laneChangedFrom="0" laneChangedTo="0"/>
        <edge id="-1315484699" sampledSeconds="0.00" departed="0" arrived="0" entered="0" left="0" laneChangedFrom="0" laneChangedTo="0"/>
        <edge id="-1360476883#0" sampledSeconds="0.00" departed="0" arrived="0" entered="0" left="0" laneChangedFrom="0" laneChangedTo="0"/>
        <edge id="-1360476883#1" sampledSeconds="0.00" departed="0" arrived="0" entered="0" left="0" laneChangedFrom="0" laneChangedTo="0"/>
        <edge id="-1360476884" sampledSeconds="0.00" departed="0" arrived="0" entered="0" left="0" laneChangedFrom="0" laneChangedTo="0"/>
        <edge id="-139327098#1" sampledSeconds="0.00" departed="0" arrived="0" entered="0" left="0" laneChangedFrom="0" laneChangedTo="0"/>
        <edge id="-139327110#1" sampledSeconds="0.00" departed="0" arrived="0" entered="0" left="0" laneChangedFrom="0" laneChangedTo="0"/>
        <edge id="-1457917270#0" sampledSeconds="0.00" departed="0" arrived="0" entered="0" left="0" laneChangedFrom="0" laneChangedTo="0"/>
        <edge id="-1457917270#2" sampledSeconds="0.00" departed="0" arrived="0" entered="0" left="0" laneChangedFrom="0" laneChangedTo="0"/>
        <edge id="-1460051656#1" sampledSeconds="0.00" departed="0" arrived="0" entered="0" left="0" laneChangedFrom="0" laneChangedTo="0"/>
        <edge id="-1460051657" sampledSeconds="0.00" departed="0" arrived="0" entered="0" left="0" laneChangedFrom="0" laneChangedTo="0"/>
        <edge id="-1460051659" sampledSeconds="0.00" departed="0" arrived="0" entered="0" left="0" laneChangedFrom="0" laneChangedTo="0"/>
        <edge id="-1460051671" sampledSeconds="0.00" departed="0" arrived="0" entered="0" left="0" laneChangedFrom="0" laneChangedTo="0"/>
        <edge id="-1470433045" sampledSeconds="0.00" departed="0" arrived="0" entered="0" left="0" laneChangedFrom="0" laneChangedTo="0"/>
        <edge id="-1470433046#0" sampledSeconds="7.34" traveltime="2.08" overlapTraveltime="2.41" density="1.76" overlapDensity="2.08" laneDensity="1.76" occupancy="0.42" waitingTime="0.00" timeLoss="0.81" speed="6.41" speedRelative="0.46" departed="0" arrived="0" entered="3" left="3" laneChangedFrom="0" laneChangedTo="0" flow="39.56"/>
        <edge id="-1470433046#1" sampledSeconds="0.43" traveltime="0.01" overlapTraveltime="0.43" density="0.31" overlapDensity="13.23" laneDensity="0.31" occupancy="0.16" waitingTime="0.00" timeLoss="0.02" speed="11.81" speedRelative="0.85" departed="0" arrived="0" entered="1" left="1" laneChangedFrom="0" laneChangedTo="0" flow="13.19"/>
        <edge id="-1470433046#2" sampledSeconds="6.41" traveltime="5.99" overlapTraveltime="6.41" density="0.33" overlapDensity="0.36" laneDensity="0.33" occupancy="0.16" waitingTime="0.00" timeLoss="0.69" speed="11.03" speedRelative="0.79" departed="0" arrived="0" entered="1" left="1" laneChangedFrom="0" laneChangedTo="0" flow="13.19"/>
        <edge id="-1470433046#3" sampledSeconds="3.61" traveltime="4.62" overlapTraveltime="5.10" density="0.80" overlapDensity="1.06" laneDensity="0.80" occupancy="0.47" waitingTime="0.00" timeLoss="2.61" speed="3.42" speedRelative="0.25" departed="1" arrived="0" entered="0" left="1" laneChangedFrom="0" laneChangedTo="0" flow="7.78"/>
        <edge id="-161622034" sampledSeconds="0.00" departed="0" arrived="0" entered="0" left="0" laneChangedFrom="0" laneChangedTo="0"/>
        <edge id="-172916436#0" sampledSeconds="0.66" traveltime="0.02" overlapTraveltime="0.66" density="0.39" overlapDensity="12.17" laneDensity="0.39" occupancy="0.23" waitingTime="0.00" timeLoss="0.28" speed="7.83" speedRelative="0.56" departed="0" arrived="0" entered="1" left="1" laneChangedFrom="0" laneChangedTo="0" flow="13.19"/>
        <edge id="-172916436#1" sampledSeconds="5.87" traveltime="6.18" overlapTraveltime="6.68" density="0.52" overlapDensity="0.58" laneDensity="0.52" occupancy="0.27" waitingTime="0.00" timeLoss="3.12" speed="6.35" speedRelative="0.46" departed="1" arrived="0" entered="0" left="1" laneChangedFrom="0" laneChangedTo="0" flow="11.39"/>
        <edge id="-172916437#0" sampledSeconds="0.00" departed="0" arrived="0" entered="0" left="0" laneChangedFrom="0" laneChangedTo="0"/>
        <edge id="-172916437#1" sampledSeconds="0.00" departed="0" arrived="0" entered="0" left="0" laneChangedFrom="0" laneChangedTo="0"/>
        <edge id="-172916437#2" sampledSeconds="0.00" departed="0" arrived="0" entered="0" left="0" laneChangedFrom="0" laneChangedTo="0"/>
        <edge id="-172916438#0" sampledSeconds="0.00" departed="0" arrived="0" entered="0" left="0" laneChangedFrom="0" laneChangedTo="0"/>
        <edge id="-172916438#1" sampledSeconds="0.00" departed="0" arrived="0" entered="0" left="0" laneChangedFrom="0" laneChangedTo="0"/>
        <edge id="-172916442#1" sampledSeconds="0.00" departed="0" arrived="0" entered="0" left="0" laneChangedFrom="0" laneChangedTo="0"/>
        <edge id="-172916442#2" sampledSeconds="0.00" departed="0" arrived="0" entered="0" left="0" laneChangedFrom="0" laneChangedTo="0"/>
        <edge id="-204241148#0" sampledSeconds="0.00" departed="0" arrived="0" entered="0" left="0" laneChangedFrom="0" laneChangedTo="0"/>
        <edge id="-204241148#1" sampledSeconds="0.00" departed="0" arrived="0" entered="0" left="0" laneChangedFrom="0" laneChangedTo="0"/>
        <edge id="-204241148#2" sampledSeconds="0.00" departed="0" arrived="0" entered="0" left="0" laneChangedFrom="0" laneChangedTo="0"/>
        <edge id="-208317134" sampledSeconds="0.00" departed="0" arrived="0" entered="0" left="0" laneChangedFrom="0" laneChangedTo="0"/>
        <edge id="-208322135" sampledSeconds="0.00" departed="0" arrived="0" entered="0" left="0" laneChangedFrom="0" laneChangedTo="0"/>
        <edge id="-238187954#1" sampledSeconds="0.00" departed="0" arrived="0" entered="0" left="0" laneChangedFrom="0" laneChangedTo="0"/>
        <edge id="-238187954#2" sampledSeconds="0.00" departed="0" arrived="0" entered="0" left="0" laneChangedFrom="0" laneChangedTo="0"/>
        <edge id="-238187954#4" sampledSeconds="0.00" departed="0" arrived="0" entered="0" left="0" laneChangedFrom="0" laneChangedTo="0"/>
        <edge id="-238187954#5" sampledSeconds="0.00" departed="0" arrived="0" entered="0" left="0" laneChangedFrom="0" laneChangedTo="0"/>
        <edge id="-241571550#0" sampledSeconds="0.00" departed="0" arrived="0" entered="0" left="0" laneChangedFrom="0" laneChangedTo="0"/>
        <edge id="-241571550#1" sampledSeconds="0.00" departed="0" arrived="0" entered="0" left="0" laneChangedFrom="0" laneChangedTo="0"/>
        <edge id="-24690148" sampledSeconds="0.00" departed="0" arrived="0" entered="0" left="0" laneChangedFrom="0" laneChangedTo="0"/>